0.0035355339 	649.42236 	97956.465 	90.027679 	0.07554972 	-6.3457308e-21
0.010606602 	648.30005 	97904.713 	143.11762 	0.40056454 	-1.154872e-20
0.01767767 	647.22987 	97827.809 	151.05661 	0.97790144 	2.5531289e-21
0.024748737 	645.85774 	97747.609 	151.75211 	1.9043416 	4.1975851e-21
0.031819805 	644.80563 	97664.51 	152.17222 	2.9653282 	1.3174371e-21
0.038890873 	643.37141 	97575.206 	152.99034 	4.3012801 	-1.1572851e-20
0.045961941 	642.28192 	97474.709 	153.4355 	5.8415827 	5.7905417e-21
0.053033009 	640.76276 	97355.059 	154.63242 	7.5023507 	2.0096623e-20
