0.0035355339 	649.77708 	145651.05 	89.953306 	0.068107597 	-2.2678294e-21
0.010606602 	649.41398 	145614.25 	142.59432 	0.35914448 	-2.182682e-21
0.01767767 	649.04107 	145562.34 	150.12443 	0.9594936 	-3.468522e-22
0.024748737 	648.55694 	145501.08 	150.31591 	1.8136917 	-8.2454864e-22
0.031819805 	648.19672 	145425.07 	150.27138 	2.6970988 	-8.8323183e-22
0.038890873 	647.70898 	145334.7 	150.54993 	3.9139384 	-3.4490921e-21
0.045961941 	647.36567 	145223.66 	150.5859 	5.2547696 	5.6536356e-21
0.053033009 	646.87683 	145084.66 	151.326 	6.7978459 	1.1174447e-20
