0.0035355339 	650.44961 	138854.5 	89.928395 	0.38939299 	-1.2772666e-20
0.010606602 	652.06621 	138653.67 	141.88087 	2.0545555 	-1.5708928e-20
0.01767767 	655.0908 	138315.05 	148.27954 	4.9979858 	9.7023865e-21
0.024748737 	657.2748 	137926.51 	146.4553 	6.8079526 	1.3533482e-20
0.031819805 	657.45358 	137363.9 	146.10437 	7.0171911 	6.2813492e-21
0.038890873 	656.59094 	136695.28 	146.42507 	5.8085092 	-1.2062992e-19
0.045961941 	655.02081 	135985.81 	147.11905 	4.4557464 	1.7057633e-20
0.053033009 	652.66896 	135232.85 	148.29126 	3.6901498 	1.2624989e-19
