0.0035355339 	650.18506 	74939.999 	89.898512 	0.066972634 	2.6179033e-21
0.010606602 	650.49449 	74945.49 	142.06363 	0.35305921 	7.9597586e-21
0.01767767 	650.92167 	74957.137 	149.18951 	0.84700976 	-4.4071958e-21
0.024748737 	651.42243 	74972.456 	148.86411 	1.8462398 	-8.3084172e-21
0.031819805 	652.21878 	74989.332 	148.11063 	2.728379 	-4.9567016e-21
0.038890873 	652.97226 	74999.718 	147.6744 	4.3381141 	1.3817785e-20
0.045961941 	654.05838 	74993.982 	146.84277 	5.9500995 	3.1316292e-21
0.053033009 	654.92267 	74964.944 	146.92504 	8.0513342 	3.7251952e-21
