0.0035355339 	649.74225 	67115.649 	89.975426 	0.076682042 	-4.014901e-21
0.010606602 	649.22432 	67091.23 	142.69467 	0.38002078 	-6.0899479e-21
0.01767767 	648.73585 	67058.357 	150.3009 	1.0207146 	2.4760684e-22
0.024748737 	648.08896 	67028.077 	150.50629 	1.9354216 	-8.4656421e-22
0.031819805 	647.63116 	66998.39 	150.41613 	2.9085487 	-1.5254506e-21
0.038890873 	647.00354 	66961.411 	150.6989 	4.3006483 	-4.7216721e-21
0.045961941 	646.56009 	66910.886 	150.69102 	5.8667816 	4.9708191e-21
0.053033009 	645.93414 	66846.657 	151.44711 	7.6850681 	1.2148299e-20
