0.0035355339 	651.27022 	127464.81 	89.713894 	0.081729511 	1.9130739e-20
0.010606602 	653.29376 	127570.5 	140.52789 	0.34882539 	4.5568424e-20
0.01767767 	655.62202 	127740.01 	146.28687 	0.64937279 	-1.7061818e-20
0.024748737 	658.02377 	127920.91 	144.77343 	1.1082782 	-3.3300329e-20
0.031819805 	660.8596 	128097.67 	142.64672 	1.4133839 	-1.7860096e-20
0.038890873 	663.60067 	128252.31 	141.10773 	2.0486802 	5.5178935e-20
0.045961941 	667.38023 	128365.19 	139.49233 	2.7854288 	-7.158216e-21
0.053033009 	670.98572 	128427.48 	138.98207 	4.0041467 	-3.2416573e-20
