0.0035355339 	650.41421 	125719.7 	89.854356 	0.084678301 	5.5600707e-21
0.010606602 	651.25644 	125744.4 	141.66802 	0.41441746 	1.5836498e-20
0.01767767 	652.02362 	125788.49 	148.41963 	0.88617444 	-7.1489438e-21
0.024748737 	652.78502 	125836.01 	147.73567 	1.8716317 	-1.4107373e-20
0.031819805 	653.76204 	125875.74 	146.68361 	2.556229 	-8.0837401e-21
0.038890873 	654.518 	125896.46 	146.06747 	3.928749 	1.802394e-20
0.045961941 	655.54564 	125890.98 	145.20283 	5.1444682 	-2.3186922e-21
0.053033009 	656.28479 	125855.16 	145.1089 	6.8438388 	-7.2391182e-21
