0.0035355339 	648.96877 	88080.313 	90.1044 	0.009061266 	-7.6334727e-21
0.010606602 	647.04384 	88029.129 	143.76515 	0.048106289 	-1.6274625e-20
0.01767767 	645.03192 	87953.699 	152.26532 	0.15916081 	2.8864011e-21
0.024748737 	642.27884 	87875.691 	153.89254 	0.38548451 	7.150523e-21
0.031819805 	639.97823 	87798.109 	155.25232 	0.7594581 	2.9357868e-21
0.038890873 	636.85299 	87718.931 	157.09633 	1.210809 	-9.169302e-21
0.045961941 	634.41707 	87627.876 	158.36838 	2.243978 	8.9992954e-21
0.053033009 	631.17385 	87509.255 	160.45149 	3.2774632 	2.2766173e-20
