0.0035355339 	649.75762 	149762.71 	89.959068 	0.060142839 	-2.9326714e-21
0.010606602 	649.37065 	149716.35 	142.63596 	0.46787919 	-3.589398e-21
0.01767767 	649.14827 	149647.36 	150.19468 	1.2926271 	-3.5769156e-22
0.024748737 	649.05909 	149586.81 	150.24601 	2.6582625 	-1.938745e-21
0.031819805 	649.12532 	149520.74 	149.79183 	3.9943546 	-2.3064027e-21
0.038890873 	649.20601 	149425.61 	149.69368 	6.0164311 	-8.4928887e-21
0.045961941 	649.3738 	149289.58 	149.32547 	8.0284557 	5.4101288e-21
0.053033009 	649.45229 	149118.35 	149.72177 	10.301656 	1.7929023e-20
