0.0035355339 	649.41682 	126426.2 	93.787082 	0.064474061 	-8.5691458e-21
0.010606602 	648.30776 	126342.79 	150.73048 	0.37105891 	-1.7889251e-20
0.01767767 	647.26333 	126208.73 	151.25196 	0.93629994 	3.713433e-21
0.024748737 	645.93828 	126062.83 	152.13158 	1.7898716 	6.6516448e-21
0.031819805 	644.99503 	125912.38 	152.69321 	2.7211325 	2.8565474e-21
0.038890873 	643.66059 	125749.11 	153.71452 	3.7786 	-2.4989686e-20
0.045961941 	642.72434 	125557.96 	154.35142 	5.1057861 	1.3277468e-20
0.053033009 	641.36657 	125332.37 	155.82141 	6.312082 	3.7993691e-20
