0.0035355339 	649.811 	66719.662 	89.929412 	0.059286726 	-5.3922116e-22
0.010606602 	649.38213 	66708.127 	142.41704 	0.41863778 	1.8695362e-21
0.01767767 	648.94681 	66693.869 	149.7812 	1.0244845 	-1.9487417e-21
0.024748737 	648.19521 	66677.982 	149.83637 	1.7688928 	-5.0110012e-21
0.031819805 	647.46699 	66654.421 	149.83232 	2.5722508 	-3.5339741e-21
0.038890873 	646.44187 	66620.697 	150.17684 	3.6628229 	1.7300375e-21
0.045961941 	645.52147 	66575.605 	150.34663 	4.8726504 	9.5435449e-22
0.053033009 	644.22853 	66514.036 	151.1806 	6.3012471 	6.0871735e-21
