0.0035355339 	649.77687 	145047.55 	89.957304 	0.071488413 	-3.0977611e-21
0.010606602 	649.40553 	145002.4 	142.62262 	0.37577767 	-4.1192111e-21
0.01767767 	649.00112 	144937.5 	150.17833 	1.0149942 	1.474765e-22
0.024748737 	648.51787 	144870.08 	150.36039 	1.9543409 	-6.6271164e-22
0.031819805 	648.1927 	144796.68 	150.24575 	2.9241802 	-1.3361599e-21
0.038890873 	647.74936 	144703.9 	150.49506 	4.2957603 	-6.9760998e-21
0.045961941 	647.45134 	144578.43 	150.48561 	5.7832328 	5.4025988e-21
0.053033009 	647.00907 	144417.87 	151.22195 	7.4985567 	1.8605583e-20
