0.0035355339 	650.19493 	147189.46 	89.902508 	0.070104652 	2.1516212e-21
0.010606602 	650.41501 	147193.79 	142.07931 	0.3561478 	7.4278997e-21
0.01767767 	650.7266 	147207.02 	149.18822 	0.83086242 	-4.4034883e-21
0.024748737 	650.97195 	147225.11 	148.88331 	1.6959529 	-8.6166604e-21
0.031819805 	651.34863 	147240.45 	148.25281 	2.4561816 	-5.2227083e-21
0.038890873 	651.65411 	147238.66 	147.99991 	3.7463828 	1.113609e-20
0.045961941 	652.11138 	147207.94 	147.49551 	5.0434744 	8.6624074e-22
0.053033009 	652.43926 	147143.54 	147.74152 	6.7296194 	-1.3026385e-22
