0.0035355339 	649.00239 	88081.958 	93.853038 	0.0082661644 	-8.3649629e-21
0.010606602 	647.04055 	88029.923 	151.31587 	0.046387309 	-1.8839519e-20
0.01767767 	645.07729 	87954.033 	152.22265 	0.15631288 	2.2327476e-21
0.024748737 	642.2445 	87876.098 	153.90531 	0.38590614 	6.1313558e-21
0.031819805 	640.0261 	87798.587 	155.21873 	0.77099264 	2.5697867e-21
0.038890873 	636.8083 	87719.64 	157.13081 	1.1915551 	-1.1196867e-20
0.045961941 	634.46685 	87628.914 	158.32474 	2.2662713 	9.8875935e-21
0.053033009 	631.12287 	87510.613 	160.48926 	3.2536994 	2.5076696e-20
