0.0035355339 	649.13911 	124224.89 	90.075181 	0.075580916 	-9.4839524e-21
0.010606602 	647.73074 	124131.25 	143.50475 	0.42055762 	-1.8801275e-20
0.01767767 	646.36698 	123984.98 	151.78875 	1.0575349 	5.0997495e-21
0.024748737 	644.75338 	123832.41 	152.85265 	2.0513452 	9.0558222e-21
0.031819805 	643.56137 	123680.49 	153.54984 	3.1753343 	3.5726177e-21
0.038890873 	642.00369 	123519.46 	154.61588 	4.4830239 	-2.282891e-20
0.045961941 	640.87235 	123337.03 	155.30166 	6.0968428 	1.0358532e-20
0.053033009 	639.35598 	123122.46 	156.78924 	7.7077072 	3.5016996e-20
