0.0035355339 	650.30278 	67640.496 	89.877106 	0.083459986 	3.4263907e-21
0.010606602 	650.74829 	67646.24 	141.86235 	0.4097138 	1.0959217e-20
0.01767767 	651.19158 	67660.278 	148.73453 	0.88987744 	-5.9023253e-21
0.024748737 	651.52415 	67679.707 	148.16749 	1.7991887 	-1.23703e-20
0.031819805 	651.85511 	67695.649 	147.32082 	2.5417419 	-7.3528936e-21
0.038890873 	651.99223 	67700.514 	146.94318 	3.8326337 	1.6142286e-20
0.045961941 	652.09682 	67692.529 	146.37827 	5.0065798 	-2.9462383e-21
0.053033009 	652.03482 	67673.741 	146.52826 	6.5547503 	-1.1379505e-20
