0.0035355339 	650.33423 	73854.975 	89.874897 	0.088498636 	4.0884534e-21
0.010606602 	650.74238 	73863.402 	141.84232 	0.43963103 	1.2555463e-20
0.01767767 	651.29817 	73880.667 	148.7258 	0.98247203 	-6.5913536e-21
0.024748737 	651.72487 	73901.109 	148.16906 	2.0001343 	-1.3329309e-20
0.031819805 	652.29476 	73920.407 	147.26751 	2.7825717 	-7.652954e-21
0.038890873 	652.70935 	73933.832 	146.74916 	4.1869239 	2.2002507e-20
0.045961941 	653.25998 	73936.121 	145.98645 	5.4492971 	-5.212349e-21
0.053033009 	653.60988 	73925.403 	145.93736 	7.13074 	-1.6865673e-20
