0.0035355339 	649.18393 	125529.75 	90.067589 	0.075072728 	-9.1694711e-21
0.010606602 	647.88638 	125437.49 	143.44356 	0.4157843 	-1.7938699e-20
0.01767767 	646.56868 	125293.42 	151.68332 	1.040427 	5.1025722e-21
0.024748737 	645.04271 	125140.05 	152.71154 	2.0419193 	9.0585736e-21
0.031819805 	643.93828 	124983.81 	153.35169 	3.1866851 	3.582256e-21
0.038890873 	642.5209 	124815.81 	154.35656 	4.5626826 	-2.4973291e-20
0.045961941 	641.51949 	124621.67 	154.9902 	6.2494579 	1.1390824e-20
0.053033009 	640.18663 	124392.74 	156.44429 	7.9600614 	3.8068425e-20
