0.0035355339 	649.39836 	126422.49 	90.036341 	0.070277397 	-7.7968896e-21
0.010606602 	648.31059 	126340.03 	143.20465 	0.37706782 	-1.5161075e-20
0.01767767 	647.24506 	126207.69 	151.2706 	0.93833253 	4.5437927e-21
0.024748737 	645.95646 	126061.93 	152.11751 	1.7811404 	7.8943007e-21
0.031819805 	644.97455 	125911.14 	152.71865 	2.7185501 	3.0820093e-21
0.038890873 	643.67993 	125747.46 	153.69438 	3.7814894 	-2.1846125e-20
0.045961941 	642.70285 	125556.67 	154.38703 	5.0847078 	1.075221e-20
0.053033009 	641.38605 	125330.92 	155.79569 	6.3127973 	3.4116995e-20
