0.0035355339 	646.8575 	135181.46 	90.499298 	-0.25872484 	-2.2446625e-20
0.010606602 	643.50214 	135069.93 	147.0494 	-1.0638515 	-6.1845641e-20
0.01767767 	643.08484 	135031.06 	159.08951 	-2.0924794 	-2.1991997e-20
0.024748737 	645.09051 	135424.79 	161.69252 	-1.3317817 	-4.5778631e-20
0.031819805 	650.59807 	136289.09 	161.40962 	1.1326303 	-2.7231251e-20
0.038890873 	656.87028 	137521.78 	160.01479 	5.1671128 	3.9877915e-19
0.045961941 	661.46198 	138913.38 	157.73206 	8.8004167 	-9.8628358e-20
0.053033009 	662.99788 	140262.28 	155.04223 	11.177564 	-3.5739441e-19
