0.0035355339 	649.90815 	67436.759 	89.943601 	0.053647225 	-1.0128171e-21
0.010606602 	649.70073 	67424.296 	142.37246 	0.43109123 	6.3984918e-22
0.01767767 	649.48112 	67408.898 	149.65798 	1.0396124 	-1.7640705e-21
0.024748737 	649.16632 	67395.58 	149.57129 	1.9590574 	-5.2044004e-21
0.031819805 	648.92761 	67383.001 	149.27041 	2.8967933 	-3.5573588e-21
0.038890873 	648.53632 	67368.333 	149.30868 	4.2591334 	8.2825752e-21
0.045961941 	648.22794 	67344.442 	149.11763 	5.6095344 	-6.8586468e-22
0.053033009 	647.72678 	67305.138 	149.62641 	7.2597185 	1.8194782e-21
