0.0035355339 	650.44683 	150660.28 	89.849625 	0.094968161 	4.7955493e-21
0.010606602 	651.30619 	150679.34 	141.62418 	0.4610023 	1.4667383e-20
0.01767767 	652.04062 	150710.82 	148.32991 	0.96824735 	-6.3761957e-21
0.024748737 	652.64902 	150732.49 	147.65774 	1.9133468 	-1.2335785e-20
0.031819805 	653.18464 	150723.94 	146.73017 	2.5777321 	-7.5013024e-21
0.038890873 	653.56644 	150673.25 	146.28128 	3.834048 	5.0397077e-21
0.045961941 	654.05259 	150575.28 	145.64047 	5.0717079 	1.8853339e-21
0.053033009 	654.39424 	150422.78 	145.83221 	6.7025066 	9.8428477e-21
