0.0035355339 	649.51891 	98806.586 	90.010569 	0.076224608 	-5.1926831e-21
0.010606602 	648.57795 	98762.038 	142.97213 	0.39955425 	-8.712225e-21
0.01767767 	647.68265 	98699.852 	150.78345 	0.96786075 	1.2823347e-21
0.024748737 	646.52915 	98639.704 	151.29821 	1.8679744 	1.4874024e-21
0.031819805 	645.65518 	98574.864 	151.55928 	2.891755 	-2.4484939e-22
0.038890873 	644.45782 	98498.05 	152.21978 	4.2170498 	-9.4742541e-21
0.045961941 	643.51987 	98403.346 	152.57406 	5.7230526 	5.5602083e-21
0.053033009 	642.19483 	98287.899 	153.67076 	7.3410196 	1.81415e-20
